 vasp.6.4.1 05Apr23 (build Sep 05 2023 14:00:55) complex                        
  
 executed on             LinuxIFC date 2024.03.24  14:59:59
 running   96 mpi-ranks, with    1 threads/rank, on    2 nodes
 distrk:  each k-point on   96 cores,    1 groups
 distr:  one band on NCORE=  48 cores,    2 groups


--------------------------------------------------------------------------------------------------------


 INCAR:
   IALGO = 48
   SYSTEM = Hybird Functional
   ISTART = 0
   ICHARG = 11
   LWAVE = .FALSE.
   LCHARG = .FALSE.
   LORBIT = 11
   NEDOS = 1000
   ENCUT = 470
   ISMEAR = 0
   SIGMA = 0.02
   NELMIN = 6
   NELM = 500
   LREAL = .FALSE.
   PREC = Accurate
   IBRION = -1
   POTIM = 0.2
   NSW = 0
   ISIF = 2
   NCORE = 48
   KPAR = 1
   IVDW = 11

 POTCAR:    PAW_PBE O 08Apr2002                   
 POTCAR:    PAW_PBE N 08Apr2002                   
 POTCAR:    PAW_PBE C 08Apr2002                   
 POTCAR:    PAW_PBE H 15Jun2001                   
 POTCAR:    PAW_PBE O 08Apr2002                   
   SHA256 =  818f92134a0a090dccd8ba1447fa70422a3b330e708bb4f08108d8ae51209ddf O/POTCAR              
   COPYR  = (c) Copyright 08Apr2002 Georg Kresse                                                    
   COPYR  = This file is part of the software VASP. Any use, copying, and all other rights are regul
   COPYR  = If you do not have a valid VASP license, you may not use, copy or distribute this file. 
   VRHFIN =O: s2p4                                                                                  
   LEXCH  = PE                                                                                      
   EATOM  =   432.3788 eV,   31.7789 Ry                                                             
                                                                                                    
   TITEL  = PAW_PBE O 08Apr2002                                                                     
   LULTRA =        F    use ultrasoft PP ?                                                          
   IUNSCR =        1    unscreen: 0-lin 1-nonlin 2-no                                               
   RPACOR =    1.200    partial core radius                                                         
   POMASS =   16.000; ZVAL   =    6.000    mass and valenz                                          
   RCORE  =    1.520    outmost cutoff radius                                                       
   RWIGS  =    1.550; RWIGS  =    0.820    wigner-seitz radius (au A)                               
   ENMAX  =  400.000; ENMIN  =  300.000 eV                                                          
   ICORE  =        2    local potential                                                             
   LCOR   =        T    correct aug charges                                                         
   LPAW   =        T    paw PP                                                                      
   EAUG   =  605.392                                                                                
   DEXC   =    0.000                                                                                
   RMAX   =    1.553    core radius for proj-oper                                                   
   RAUG   =    1.300    factor for augmentation sphere                                              
   RDEP   =    1.550    radius for radial grids                                                     
   RDEPT  =    1.329    core radius for aug-charge                                                  
                                                                                                    
   Atomic configuration                                                                             
    4 entries                                                                                       
     n  l   j            E        occ.                                                              
     1  0  0.50      -514.6923   2.0000                                                             
     2  0  0.50       -23.9615   2.0000                                                             
     2  1  0.50        -9.0305   4.0000                                                             
     3  2  1.50        -9.5241   0.0000                                                             
   Description                                                                                      
     l       E           TYP  RCUT    TYP  RCUT                                                     
     0    -23.9615318     23  1.200                                                                 
     0     -9.5240782     23  1.200                                                                 
     1     -9.0304911     23  1.520                                                                 
     1      8.1634956     23  1.520                                                                 
     2     -9.5240782      7  1.500                                                                 
  local pseudopotential read in
  partial core-charges read in
  partial kinetic energy density read in
  kinetic energy density of atom read in
  atomic valenz-charges read in
  non local Contribution for L=           0  read in
    real space projection operators read in
  non local Contribution for L=           0  read in
    real space projection operators read in
  non local Contribution for L=           1  read in
    real space projection operators read in
  non local Contribution for L=           1  read in
    real space projection operators read in
    PAW grid and wavefunctions read in
 
   number of l-projection  operators is LMAX  =           4
   number of lm-projection operators is LMMAX =           8
 
 POTCAR:    PAW_PBE N 08Apr2002                   
   SHA256 =  e053789ff3a61a86a1b75d8a110fcc91f86041011e7b0817c7c99e4e8a6349d7 N/POTCAR              
   COPYR  = (c) Copyright 08Apr2002 Georg Kresse                                                    
   COPYR  = This file is part of the software VASP. Any use, copying, and all other rights are regul
   COPYR  = If you do not have a valid VASP license, you may not use, copy or distribute this file. 
   VRHFIN =N: s2p3                                                                                  
   LEXCH  = PE                                                                                      
   EATOM  =   264.5486 eV,   19.4438 Ry                                                             
                                                                                                    
   TITEL  = PAW_PBE N 08Apr2002                                                                     
   LULTRA =        F    use ultrasoft PP ?                                                          
   IUNSCR =        1    unscreen: 0-lin 1-nonlin 2-no                                               
   RPACOR =    1.200    partial core radius                                                         
   POMASS =   14.001; ZVAL   =    5.000    mass and valenz                                          
   RCORE  =    1.500    outmost cutoff radius                                                       
   RWIGS  =    1.400; RWIGS  =    0.741    wigner-seitz radius (au A)                               
   ENMAX  =  400.000; ENMIN  =  300.000 eV                                                          
   ICORE  =        2    local potential                                                             
   LCOR   =        T    correct aug charges                                                         
   LPAW   =        T    paw PP                                                                      
   EAUG   =  627.112                                                                                
   DEXC   =    0.000                                                                                
   RMAX   =    1.529    core radius for proj-oper                                                   
   RAUG   =    1.300    factor for augmentation sphere                                              
   RDEP   =    1.514    radius for radial grids                                                     
   RDEPT  =    1.338    core radius for aug-charge                                                  
                                                                                                    
   Atomic configuration                                                                             
    4 entries                                                                                       
     n  l   j            E        occ.                                                              
     1  0  0.50      -384.7179   2.0000                                                             
     2  0  0.50       -18.5828   2.0000                                                             
     2  1  0.50        -7.0898   3.0000                                                             
     3  2  1.50        -6.8029   0.0000                                                             
   Description                                                                                      
     l       E           TYP  RCUT    TYP  RCUT                                                     
     0    -18.5828119     23  1.200                                                                 
     0    -13.5018863     23  1.200                                                                 
     1     -7.0897853     23  1.500                                                                 
     1      9.5240782     23  1.500                                                                 
     2     -6.8029130      7  1.500                                                                 
  local pseudopotential read in
  partial core-charges read in
  partial kinetic energy density read in
  atomic valenz-charges read in
  non local Contribution for L=           0  read in
    real space projection operators read in
  non local Contribution for L=           0  read in
    real space projection operators read in
  non local Contribution for L=           1  read in
    real space projection operators read in
  non local Contribution for L=           1  read in
    real space projection operators read in
    PAW grid and wavefunctions read in
 
   number of l-projection  operators is LMAX  =           4
   number of lm-projection operators is LMMAX =           8
 
 POTCAR:    PAW_PBE C 08Apr2002                   
   SHA256 =  253f7b50bb8d59471dbedb8285d89021f4a42ed1a2c5d38a03a736e69125dd95 C/POTCAR              
   COPYR  = (c) Copyright 08Apr2002 Georg Kresse                                                    
   COPYR  = This file is part of the software VASP. Any use, copying, and all other rights are regul
   COPYR  = If you do not have a valid VASP license, you may not use, copy or distribute this file. 
   VRHFIN =C: s2p2                                                                                  
   LEXCH  = PE                                                                                      
   EATOM  =   147.1560 eV,   10.8157 Ry                                                             
                                                                                                    
   TITEL  = PAW_PBE C 08Apr2002                                                                     
   LULTRA =        F    use ultrasoft PP ?                                                          
   IUNSCR =        1    unscreen: 0-lin 1-nonlin 2-no                                               
   RPACOR =    1.200    partial core radius                                                         
   POMASS =   12.011; ZVAL   =    4.000    mass and valenz                                          
   RCORE  =    1.500    outmost cutoff radius                                                       
   RWIGS  =    1.630; RWIGS  =    0.863    wigner-seitz radius (au A)                               
   ENMAX  =  400.000; ENMIN  =  300.000 eV                                                          
   ICORE  =        2    local potential                                                             
   LCOR   =        T    correct aug charges                                                         
   LPAW   =        T    paw PP                                                                      
   EAUG   =  644.873                                                                                
   DEXC   =    0.000                                                                                
   RMAX   =    1.529    core radius for proj-oper                                                   
   RAUG   =    1.300    factor for augmentation sphere                                              
   RDEP   =    1.501    radius for radial grids                                                     
   RDEPT  =    1.300    core radius for aug-charge                                                  
                                                                                                    
   Atomic configuration                                                                             
    4 entries                                                                                       
     n  l   j            E        occ.                                                              
     1  0  0.50      -273.3789   2.0000                                                             
     2  0  0.50       -13.7508   2.0000                                                             
     2  1  0.50        -5.2854   2.0000                                                             
     3  2  1.50        -5.4423   0.0000                                                             
   Description                                                                                      
     l       E           TYP  RCUT    TYP  RCUT                                                     
     0    -13.7508458     23  1.200                                                                 
     0     -8.2022199     23  1.200                                                                 
     1     -5.2854383     23  1.500                                                                 
     1     34.0145650     23  1.500                                                                 
     2     -5.4423304      7  1.500                                                                 
  local pseudopotential read in
  partial core-charges read in
  partial kinetic energy density read in
  atomic valenz-charges read in
  non local Contribution for L=           0  read in
    real space projection operators read in
  non local Contribution for L=           0  read in
    real space projection operators read in
  non local Contribution for L=           1  read in
    real space projection operators read in
  non local Contribution for L=           1  read in
    real space projection operators read in
    PAW grid and wavefunctions read in
 
   number of l-projection  operators is LMAX  =           4
   number of lm-projection operators is LMMAX =           8
 
 POTCAR:    PAW_PBE H 15Jun2001                   
   SHA256 =  030f79b5d3ab3cf0e668861823c8fb652ff669f3e15e46930bd03bfd63a607b6 H/POTCAR              
   COPYR  = (c) Copyright 15Jun2001 Georg Kresse                                                    
   COPYR  = This file is part of the software VASP. Any use, copying, and all other rights are regul
   COPYR  = If you do not have a valid VASP license, you may not use, copy or distribute this file. 
   VRHFIN =H: ultrasoft test                                                                        
   LEXCH  = PE                                                                                      
   EATOM  =    12.4884 eV,    0.9179 Ry                                                             
                                                                                                    
   TITEL  = PAW_PBE H 15Jun2001                                                                     
   LULTRA =        F    use ultrasoft PP ?                                                          
   IUNSCR =        0    unscreen: 0-lin 1-nonlin 2-no                                               
   RPACOR =    0.000    partial core radius                                                         
   POMASS =    1.000; ZVAL   =    1.000    mass and valenz                                          
   RCORE  =    1.100    outmost cutoff radius                                                       
   RWIGS  =    0.700; RWIGS  =    0.370    wigner-seitz radius (au A)                               
   ENMAX  =  250.000; ENMIN  =  200.000 eV                                                          
   RCLOC  =    0.701    cutoff for local pot                                                        
   LCOR   =        T    correct aug charges                                                         
   LPAW   =        T    paw PP                                                                      
   EAUG   =  400.000                                                                                
   RMAX   =    1.123    core radius for proj-oper                                                   
   RAUG   =    1.200    factor for augmentation sphere                                              
   RDEP   =    1.112    radius for radial grids                                                     
   RDEPT  =    0.926    core radius for aug-charge                                                  
                                                                                                    
   Atomic configuration                                                                             
    2 entries                                                                                       
     n  l   j            E        occ.                                                              
     1  0  0.50        -6.4927   1.0000                                                             
     2  1  0.50        -3.4015   0.0000                                                             
   Description                                                                                      
     l       E           TYP  RCUT    TYP  RCUT                                                     
     0     -6.4927494     23  1.100                                                                 
     0      6.8029130     23  1.100                                                                 
     1     -4.0817478     23  1.100                                                                 
  local pseudopotential read in
  atomic valenz-charges read in
  non local Contribution for L=           0  read in
    real space projection operators read in
  non local Contribution for L=           0  read in
    real space projection operators read in
  non local Contribution for L=           1  read in
    real space projection operators read in
    PAW grid and wavefunctions read in
 
   number of l-projection  operators is LMAX  =           3
   number of lm-projection operators is LMMAX =           5
 
 -----------------------------------------------------------------------------
|                                                                             |
|               ----> ADVICE to this user running VASP <----                  |
|                                                                             |
|     You have a (more or less) 'large supercell' and for larger cells it     |
|     might be more efficient to use real-space projection operators.         |
|     Therefore, try LREAL= Auto in the INCAR file.                           |
|     Mind: For very accurate calculation, you might also keep the            |
|     reciprocal projection scheme (i.e. LREAL=.FALSE.).                      |
|                                                                             |
 -----------------------------------------------------------------------------

  PAW_PBE O 08Apr2002                   :
 energy of atom  1       EATOM= -432.3788
 kinetic energy error for atom=    0.0291 (will be added to EATOM!!)
  PAW_PBE N 08Apr2002                   :
 energy of atom  2       EATOM= -264.5486
 kinetic energy error for atom=    0.0186 (will be added to EATOM!!)
  PAW_PBE C 08Apr2002                   :
 energy of atom  3       EATOM= -147.1560
 kinetic energy error for atom=    0.0093 (will be added to EATOM!!)
  PAW_PBE H 15Jun2001                   :
 energy of atom  4       EATOM=  -12.4884
 kinetic energy error for atom=    0.0033 (will be added to EATOM!!)
 
 
 POSCAR: crystal
  positions in direct lattice
  velocities in cartesian coordinates
 exchange correlation table for  LEXCH =        8
   RHO(1)=    0.500       N(1)  =     2000
   RHO(2)=  100.500       N(2)  =     4000
 


--------------------------------------------------------------------------------------------------------


 ion  position               nearest neighbor table
   1  0.443  0.723  0.500-  35 1.28
   2  0.277  0.720  0.500-  36 1.28
   3  0.280  0.557  0.500-  34 1.28
   4  0.720  0.443  0.500-  31 1.28
   5  0.723  0.280  0.500-  33 1.28
   6  0.557  0.277  0.500-  32 1.28
   7  0.810  0.440  0.500-  73 1.04  37 1.34  43 1.36
   8  0.560  0.369  0.500-  74 1.04  38 1.34  44 1.36
   9  0.631  0.190  0.500-  75 1.04  39 1.34  45 1.36
  10  0.190  0.560  0.500-  76 1.04  40 1.34  46 1.36
  11  0.440  0.631  0.500-  77 1.04  41 1.34  47 1.36
  12  0.369  0.810  0.500-  78 1.04  42 1.34  48 1.36
  13  0.723  0.362  0.500-  37 1.35  31 1.43  33 1.45
  14  0.638  0.361  0.500-  38 1.35  32 1.43  31 1.45
  15  0.639  0.277  0.500-  39 1.35  33 1.43  32 1.45
  16  0.277  0.638  0.500-  40 1.35  34 1.43  36 1.45
  17  0.362  0.639  0.500-  41 1.35  35 1.43  34 1.45
  18  0.361  0.723  0.500-  42 1.35  36 1.43  35 1.45
  19  0.956  0.531  0.500-  91 1.09  25 1.39  61 1.40
  20  0.469  0.425  0.500-  92 1.09  26 1.39  62 1.40
  21  0.575  0.044  0.500-  93 1.09  27 1.39  63 1.40
  22  0.044  0.469  0.500-  94 1.09  28 1.39  64 1.40
  23  0.531  0.575  0.500-  95 1.09  29 1.39  65 1.40
  24  0.425  0.956  0.500-  96 1.09  30 1.39  66 1.40
  25  0.901  0.515  0.500- 101 1.08  19 1.39  43 1.41
  26  0.485  0.386  0.500-  98 1.08  20 1.39  44 1.41
  27  0.614  0.099  0.500- 102 1.08  21 1.39  45 1.41
  28  0.099  0.485  0.500-  97 1.08  22 1.39  46 1.41
  29  0.515  0.614  0.500- 100 1.08  23 1.39  47 1.41
  30  0.386  0.901  0.500-  99 1.08  24 1.39  48 1.41
  31  0.696  0.392  0.500-   4 1.28  13 1.43  14 1.45
  32  0.608  0.303  0.500-   6 1.28  14 1.43  15 1.45
  33  0.697  0.304  0.500-   5 1.28  15 1.43  13 1.45
  34  0.304  0.608  0.500-   3 1.28  16 1.43  17 1.45
  35  0.392  0.697  0.500-   1 1.28  17 1.43  18 1.45
  36  0.303  0.696  0.500-   2 1.28  18 1.43  16 1.45
  37  0.777  0.387  0.500-  67 1.08   7 1.34  13 1.35
  38  0.613  0.390  0.500-  68 1.08   8 1.34  14 1.35
  39  0.610  0.223  0.500-  69 1.08   9 1.34  15 1.35
  40  0.223  0.613  0.500-  70 1.08  10 1.34  16 1.35
  41  0.387  0.610  0.500-  71 1.08  11 1.34  17 1.35
  42  0.390  0.777  0.500-  72 1.08  12 1.34  18 1.35
  43  0.863  0.459  0.500-   7 1.36  49 1.41  25 1.41
  44  0.541  0.404  0.500-   8 1.36  50 1.41  26 1.41
  45  0.596  0.137  0.500-   9 1.36  51 1.41  27 1.41
  46  0.137  0.541  0.500-  10 1.36  52 1.41  28 1.41
  47  0.459  0.596  0.500-  11 1.36  53 1.41  29 1.41
  48  0.404  0.863  0.500-  12 1.36  54 1.41  30 1.41
  49  0.881  0.421  0.500-  79 1.08  55 1.36  43 1.41
  50  0.579  0.460  0.500-  80 1.08  56 1.36  44 1.41
  51  0.540  0.119  0.500-  81 1.08  57 1.36  45 1.41
  52  0.119  0.579  0.500-  82 1.08  58 1.36  46 1.41
  53  0.421  0.540  0.500-  83 1.08  59 1.36  47 1.41
  54  0.460  0.881  0.500-  84 1.08  60 1.36  48 1.41
  55  0.934  0.438  0.500-  85 1.09  49 1.36  61 1.40
  56  0.562  0.496  0.500-  86 1.09  50 1.36  62 1.40
  57  0.504  0.066  0.500-  87 1.09  51 1.36  63 1.40
  58  0.066  0.562  0.500-  88 1.09  52 1.36  64 1.40
  59  0.438  0.504  0.500-  89 1.09  53 1.36  65 1.40
  60  0.496  0.934  0.500-  90 1.09  54 1.36  66 1.40
  61  0.972  0.492  0.500-  55 1.40  19 1.40  64 1.44
  62  0.508  0.480  0.500-  56 1.40  20 1.40  65 1.44
  63  0.520  0.028  0.500-  57 1.40  21 1.40  66 1.44
  64  0.028  0.508  0.500-  58 1.40  22 1.40  61 1.44
  65  0.492  0.520  0.500-  59 1.40  23 1.40  62 1.44
  66  0.480  0.972  0.500-  60 1.40  24 1.40  63 1.44
  67  0.793  0.360  0.500-  37 1.08
  68  0.640  0.433  0.500-  38 1.08
  69  0.567  0.207  0.500-  39 1.08
  70  0.207  0.640  0.500-  40 1.08
  71  0.360  0.567  0.500-  41 1.08
  72  0.433  0.793  0.500-  42 1.08
  73  0.790  0.463  0.500-   7 1.04
  74  0.537  0.327  0.500-   8 1.04
  75  0.673  0.210  0.500-   9 1.04
  76  0.210  0.537  0.500-  10 1.04
  77  0.463  0.673  0.500-  11 1.04
  78  0.327  0.790  0.500-  12 1.04
  79  0.854  0.379  0.500-  49 1.08
  80  0.621  0.475  0.500-  50 1.08
  81  0.525  0.146  0.500-  51 1.08
  82  0.146  0.621  0.500-  52 1.08
  83  0.379  0.525  0.500-  53 1.08
  84  0.475  0.854  0.500-  54 1.08
  85  0.946  0.407  0.500-  55 1.09
  86  0.593  0.538  0.500-  56 1.09
  87  0.462  0.054  0.500-  57 1.09
  88  0.054  0.593  0.500-  58 1.09
  89  0.407  0.462  0.500-  59 1.09
  90  0.538  0.946  0.500-  60 1.09
  91  0.984  0.573  0.500-  19 1.09
  92  0.427  0.410  0.500-  20 1.09
  93  0.590  0.016  0.500-  21 1.09
  94  0.016  0.427  0.500-  22 1.09
  95  0.573  0.590  0.500-  23 1.09
  96  0.410  0.984  0.500-  24 1.09
  97  0.112  0.456  0.500-  28 1.08
  98  0.456  0.344  0.500-  26 1.08
  99  0.344  0.888  0.500-  30 1.08
 100  0.544  0.656  0.500-  29 1.08
 101  0.888  0.544  0.500-  25 1.08
 102  0.656  0.112  0.500-  27 1.08
 
  LATTYP: Found a hexagonal cell.
 ALAT       =    28.7810001373
 C/A-ratio  =     0.1249226948
  
  Lattice vectors:
  
 A1 = (  28.7810001373,   0.0000000000,   0.0000000000)
 A2 = ( -14.3905000687,  24.9250772653,   0.0000000000)
 A3 = (   0.0000000000,   0.0000000000,   3.5954000950)


Analysis of symmetry for initial positions (statically):
=====================================================================
 Subroutine PRICEL returns:
 Original cell was already a primitive cell.
 

 Routine SETGRP: Setting up the symmetry group for a 
 hexagonal supercell.


 Subroutine GETGRP returns: Found 12 space group operations
 (whereof 12 operations were pure point group operations)
 out of a pool of 24 trial point group operations.


The static configuration has the point symmetry C_6h.


Analysis of symmetry for dynamics (positions and initial velocities):
=====================================================================
 Subroutine PRICEL returns:
 Original cell was already a primitive cell.
 

 Routine SETGRP: Setting up the symmetry group for a 
 hexagonal supercell.


 Subroutine GETGRP returns: Found 12 space group operations
 (whereof 12 operations were pure point group operations)
 out of a pool of 24 trial point group operations.


The dynamic configuration has the point symmetry C_6h.


 Subroutine INISYM returns: Found 12 space group operations
 (whereof 12 operations are pure point group operations),
 and found     1 'primitive' translations


----------------------------------------------------------------------------------------

                                     Primitive cell                                     

  volume of cell :    2579.2273

  direct lattice vectors                    reciprocal lattice vectors
    28.781000137  0.000000000  0.000000000     0.034745144  0.020060118  0.000000000
   -14.390500069 24.925077265  0.000000000     0.000000000  0.040120237  0.000000000
     0.000000000  0.000000000  3.595400095     0.000000000  0.000000000  0.278133163

  length of vectors
    28.781000137 28.781000137  3.595400095     0.040120237  0.040120237  0.278133163

  position of ions in fractional coordinates (direct lattice)
     0.443440930  0.723048130  0.500000000
     0.276951870  0.720392800  0.500000000
     0.279607200  0.556559070  0.500000000
     0.720392800  0.443440930  0.500000000
     0.723048130  0.279607200  0.500000000
     0.556559070  0.276951870  0.500000000
     0.809516390  0.440470720  0.500000000
     0.559529250  0.369045670  0.500000000
     0.630954360  0.190483610  0.500000000
     0.190483610  0.559529250  0.500000000
     0.440470720  0.630954360  0.500000000
     0.369045670  0.809516390  0.500000000
     0.723174580  0.362477420  0.500000000
     0.637522580  0.360697160  0.500000000
     0.639302840  0.276825420  0.500000000
     0.276825420  0.637522580  0.500000000
     0.362477420  0.639302840  0.500000000
     0.360697160  0.723174580  0.500000000
     0.955500710  0.530662470  0.500000000
     0.469337530  0.424838250  0.500000000
     0.575161750  0.044499290  0.500000000
     0.044499290  0.469337530  0.500000000
     0.530662470  0.575161750  0.500000000
     0.424838250  0.955500710  0.500000000
     0.901110890  0.514851780  0.500000000
     0.485148220  0.386259110  0.500000000
     0.613740890  0.098889110  0.500000000
     0.098889110  0.485148220  0.500000000
     0.514851780  0.613740890  0.500000000
     0.386259110  0.901110890  0.500000000
     0.695519310  0.392287510  0.500000000
     0.607712490  0.303231810  0.500000000
     0.696768190  0.304480690  0.500000000
     0.304480690  0.607712490  0.500000000
     0.392287510  0.696768190  0.500000000
     0.303231810  0.695519310  0.500000000
     0.777222050  0.387272820  0.500000000
     0.612727180  0.389949230  0.500000000
     0.610050770  0.222777950  0.500000000
     0.222777950  0.612727180  0.500000000
     0.387272820  0.610050770  0.500000000
     0.389949230  0.777222050  0.500000000
     0.863415620  0.459287350  0.500000000
     0.540712620  0.404128270  0.500000000
     0.595871700  0.136584380  0.500000000
     0.136584380  0.540712620  0.500000000
     0.459287350  0.595871700  0.500000000
     0.404128270  0.863415620  0.500000000
     0.880975210  0.421373290  0.500000000
     0.578626710  0.459601920  0.500000000
     0.540398080  0.119024790  0.500000000
     0.119024790  0.578626710  0.500000000
     0.421373290  0.540398080  0.500000000
     0.459601920  0.880975210  0.500000000
     0.934135870  0.437868150  0.500000000
     0.562131850  0.496267730  0.500000000
     0.503732270  0.065864130  0.500000000
     0.065864130  0.562131850  0.500000000
     0.437868150  0.503732270  0.500000000
     0.496267730  0.934135870  0.500000000
     0.972157230  0.492446810  0.500000000
     0.507553190  0.479710420  0.500000000
     0.520289580  0.027842770  0.500000000
     0.027842770  0.507553190  0.500000000
     0.492446810  0.520289580  0.500000000
     0.479710420  0.972157230  0.500000000
     0.793017140  0.360338520  0.500000000
     0.639661480  0.432678620  0.500000000
     0.567321380  0.206982860  0.500000000
     0.206982860  0.639661480  0.500000000
     0.360338520  0.567321380  0.500000000
     0.432678620  0.793017140  0.500000000
     0.790382280  0.463055790  0.500000000
     0.536944180  0.327326490  0.500000000
     0.672673540  0.209617720  0.500000000
     0.209617720  0.536944180  0.500000000
     0.463055790  0.672673540  0.500000000
     0.327326490  0.790382280  0.500000000
     0.853847510  0.378601030  0.500000000
     0.621398970  0.475246480  0.500000000
     0.524753520  0.146152490  0.500000000
     0.146152490  0.621398970  0.500000000
     0.378601030  0.524753520  0.500000000
     0.475246480  0.853847510  0.500000000
     0.945807720  0.407359700  0.500000000
     0.592640270  0.538448050  0.500000000
     0.461551980  0.054192280  0.500000000
     0.054192280  0.592640270  0.500000000
     0.407359700  0.461551980  0.500000000
     0.538448050  0.945807720  0.500000000
     0.983912350  0.573479900  0.500000000
     0.426520100  0.410432450  0.500000000
     0.589567550  0.016087650  0.500000000
     0.016087650  0.426520100  0.500000000
     0.573479900  0.589567550  0.500000000
     0.410432450  0.983912350  0.500000000
     0.111836545  0.455811600  0.500000000
     0.455811609  0.343975053  0.500000000
     0.343975055  0.888163451  0.500000000
     0.544188385  0.656024949  0.500000000
     0.888163447  0.544188393  0.500000000
     0.656024947  0.111836557  0.500000000

  ion indices of the primitive-cell ions
   primitive index   ion index
                 1           1
                 2           2
                 3           3
                 4           4
                 5           5
                 6           6
                 7           7
                 8           8
                 9           9
                10          10
                11          11
                12          12
                13          13
                14          14
                15          15
                16          16
                17          17
                18          18
                19          19
                20          20
                21          21
                22          22
                23          23
                24          24
                25          25
                26          26
                27          27
                28          28
                29          29
                30          30
                31          31
                32          32
                33          33
                34          34
                35          35
                36          36
                37          37
                38          38
                39          39
                40          40
                41          41
                42          42
                43          43
                44          44
                45          45
                46          46
                47          47
                48          48
                49          49
                50          50
                51          51
                52          52
                53          53
                54          54
                55          55
                56          56
                57          57
                58          58
                59          59
                60          60
                61          61
                62          62
                63          63
                64          64
                65          65
                66          66
                67          67
                68          68
                69          69
                70          70
                71          71
                72          72
                73          73
                74          74
                75          75
                76          76
                77          77
                78          78
                79          79
                80          80
                81          81
                82          82
                83          83
                84          84
                85          85
                86          86
                87          87
                88          88
                89          89
                90          90
                91          91
                92          92
                93          93
                94          94
                95          95
                96          96
                97          97
                98          98
                99          99
               100         100
               101         101
               102         102

----------------------------------------------------------------------------------------

 
 
 KPOINTS: K-Path Generated by VASPKIT.            

Interpolating k-points between supplied coordinates.

 Line segments in fractional coordinates (reciprocal lattice):
    0.000000  0.000000  0.000000  ...  0.500000  0.000000  0.000000
    0.500000  0.000000  0.000000  ...  0.333333  0.333333  0.000000
    0.333333  0.333333  0.000000  ...  0.000000  0.000000  0.000000
    0.000000  0.000000  0.000000  ...  0.000000  0.000000  0.500000
    0.000000  0.000000  0.500000  ...  0.500000  0.000000  0.500000
    0.500000  0.000000  0.500000  ...  0.333333  0.333333  0.500000
    0.333333  0.333333  0.500000  ...  0.000000  0.000000  0.500000
    0.500000  0.000000  0.500000  ...  0.500000  0.000000  0.000000
    0.333333  0.333333  0.500000  ...  0.333333  0.333333  0.000000

 Generated     5 points on each line segment, for a total of     45 k-points:

 Following reciprocal coordinates:
            Coordinates               Weight
  0.000000  0.000000  0.000000      0.022222
  0.125000  0.000000  0.000000      0.022222
  0.250000  0.000000  0.000000      0.022222
  0.375000  0.000000  0.000000      0.022222
  0.500000  0.000000  0.000000      0.022222
  0.500000  0.000000  0.000000      0.022222
  0.458333  0.083333  0.000000      0.022222
  0.416667  0.166667  0.000000      0.022222
  0.375000  0.250000  0.000000      0.022222
  0.333333  0.333333  0.000000      0.022222
  0.333333  0.333333  0.000000      0.022222
  0.250000  0.250000  0.000000      0.022222
  0.166667  0.166667  0.000000      0.022222
  0.083333  0.083333  0.000000      0.022222
  0.000000  0.000000  0.000000      0.022222
  0.000000  0.000000  0.000000      0.022222
  0.000000  0.000000  0.125000      0.022222
  0.000000  0.000000  0.250000      0.022222
  0.000000  0.000000  0.375000      0.022222
  0.000000  0.000000  0.500000      0.022222
  0.000000  0.000000  0.500000      0.022222
  0.125000  0.000000  0.500000      0.022222
  0.250000  0.000000  0.500000      0.022222
  0.375000  0.000000  0.500000      0.022222
  0.500000  0.000000  0.500000      0.022222
  0.500000  0.000000  0.500000      0.022222
  0.458333  0.083333  0.500000      0.022222
  0.416667  0.166667  0.500000      0.022222
  0.375000  0.250000  0.500000      0.022222
  0.333333  0.333333  0.500000      0.022222
  0.333333  0.333333  0.500000      0.022222
  0.250000  0.250000  0.500000      0.022222
  0.166667  0.166667  0.500000      0.022222
  0.083333  0.083333  0.500000      0.022222
  0.000000  0.000000  0.500000      0.022222
  0.500000  0.000000  0.500000      0.022222
  0.500000  0.000000  0.375000      0.022222
  0.500000  0.000000  0.250000      0.022222
  0.500000  0.000000  0.125000      0.022222
  0.500000  0.000000  0.000000      0.022222
  0.333333  0.333333  0.500000      0.022222
  0.333333  0.333333  0.375000      0.022222
  0.333333  0.333333  0.250000      0.022222
  0.333333  0.333333  0.125000      0.022222
  0.333333  0.333333  0.000000      0.022222

 Following cartesian coordinates:
            Coordinates               Weight
  0.000000  0.000000  0.000000      0.022222
  0.004343  0.002508  0.000000      0.022222
  0.008686  0.005015  0.000000      0.022222
  0.013029  0.007523  0.000000      0.022222
  0.017373  0.010030  0.000000      0.022222
  0.017373  0.010030  0.000000      0.022222
  0.015925  0.012538  0.000000      0.022222
  0.014477  0.015045  0.000000      0.022222
  0.013029  0.017553  0.000000      0.022222
  0.011582  0.020060  0.000000      0.022222
  0.011582  0.020060  0.000000      0.022222
  0.008686  0.015045  0.000000      0.022222
  0.005791  0.010030  0.000000      0.022222
  0.002895  0.005015  0.000000      0.022222
  0.000000  0.000000  0.000000      0.022222
  0.000000  0.000000  0.000000      0.022222
  0.000000  0.000000  0.034767      0.022222
  0.000000  0.000000  0.069533      0.022222
  0.000000  0.000000  0.104300      0.022222
  0.000000  0.000000  0.139067      0.022222
  0.000000  0.000000  0.139067      0.022222
  0.004343  0.002508  0.139067      0.022222
  0.008686  0.005015  0.139067      0.022222
  0.013029  0.007523  0.139067      0.022222
  0.017373  0.010030  0.139067      0.022222
  0.017373  0.010030  0.139067      0.022222
  0.015925  0.012538  0.139067      0.022222
  0.014477  0.015045  0.139067      0.022222
  0.013029  0.017553  0.139067      0.022222
  0.011582  0.020060  0.139067      0.022222
  0.011582  0.020060  0.139067      0.022222
  0.008686  0.015045  0.139067      0.022222
  0.005791  0.010030  0.139067      0.022222
  0.002895  0.005015  0.139067      0.022222
  0.000000  0.000000  0.139067      0.022222
  0.017373  0.010030  0.139067      0.022222
  0.017373  0.010030  0.104300      0.022222
  0.017373  0.010030  0.069533      0.022222
  0.017373  0.010030  0.034767      0.022222
  0.017373  0.010030  0.000000      0.022222
  0.011582  0.020060  0.139067      0.022222
  0.011582  0.020060  0.104300      0.022222
  0.011582  0.020060  0.069533      0.022222
  0.011582  0.020060  0.034767      0.022222
  0.011582  0.020060  0.000000      0.022222
 


--------------------------------------------------------------------------------------------------------




 Dimension of arrays:
   k-points           NKPTS =     45   k-points in BZ     NKDIM =     45   number of bands    NBANDS=    212
   number of dos      NEDOS =   1000   number of ions     NIONS =    102
   non local maximal  LDIM  =      4   non local SUM 2l+1 LMDIM =      8
   total plane-waves  NPLWV = ******
   max r-space proj   IRMAX =      1   max aug-charges    IRDMAX=   6410
   dimension x,y,z NGX =   210 NGY =  210 NGZ =   28
   dimension x,y,z NGXF=   420 NGYF=  420 NGZF=   56
   support grid    NGXF=   420 NGYF=  420 NGZF=   56
   ions per type =               6   6  54  36
   NGX,Y,Z   is equivalent  to a cutoff of  12.13, 12.13, 12.95 a.u.
   NGXF,Y,Z  is equivalent  to a cutoff of  24.26, 24.26, 25.89 a.u.

 SYSTEM =  Hybird Functional                       
 POSCAR =  crystal                                 

 Startparameter for this run:
   NWRITE =      2    write-flag & timer
   PREC   = accura    normal or accurate (medium, high low for compatibility)
   ISTART =      0    job   : 0-new  1-cont  2-samecut
   ICHARG =     11    charge: 1-file 2-atom 10-const
   ISPIN  =      1    spin polarized calculation?
   LNONCOLLINEAR =      F non collinear calculations
   LSORBIT =      F    spin-orbit coupling
   INIWAV =      1    electr: 0-lowe 1-rand  2-diag
   LASPH  =      F    aspherical Exc in radial PAW
 Electronic Relaxation 1
   ENCUT  =  470.0 eV  34.54 Ry    5.88 a.u.  50.88 50.88  6.36*2*pi/ulx,y,z
   ENINI  =  470.0     initial cutoff
   ENAUG  =  644.9 eV  augmentation charge cutoff
   NELM   =    500;   NELMIN=  6; NELMDL=-12     # of ELM steps 
   EDIFF  = 0.1E-03   stopping-criterion for ELM
   LREAL  =      F    real-space projection
   NLSPLINE    = F    spline interpolate recip. space projectors
   LCOMPAT=      F    compatible to vasp.4.4
   GGA_COMPAT  = T    GGA compatible to vasp.4.4-vasp.4.6
   LMAXPAW     = -100 max onsite density
   LMAXMIX     =    2 max onsite mixed and CHGCAR
   VOSKOWN=      0    Vosko Wilk Nusair interpolation
   ROPT   =    0.00000   0.00000   0.00000   0.00000
 Ionic relaxation
   EDIFFG = 0.1E-02   stopping-criterion for IOM
   NSW    =      0    number of steps for IOM
   NBLOCK =      1;   KBLOCK =      1    inner block; outer block 
   IBRION =     -1    ionic relax: 0-MD 1-quasi-New 2-CG
   NFREE  =      0    steps in history (QN), initial steepest desc. (CG)
   ISIF   =      2    stress and relaxation
   IWAVPR =     10    prediction:  0-non 1-charg 2-wave 3-comb
   ISYM   =      2    0-nonsym 1-usesym 2-fastsym
   LCORR  =      T    Harris-Foulkes like correction to forces

   POTIM  = 0.2000    time-step for ionic-motion
   TEIN   =    0.0    initial temperature
   TEBEG  =    0.0;   TEEND  =   0.0 temperature during run
   SMASS  =  -3.00    Nose mass-parameter (am)
   estimated Nose-frequenzy (Omega)   =  0.10E-29 period in steps = 0.31E+47 mass=  -0.189E-25a.u.
   SCALEE = 1.0000    scale energy and forces
   NPACO  =    256;   APACO  = 10.0  distance and # of slots for P.C.
   PSTRESS=    0.0 pullay stress

  Mass of Ions in am
   POMASS =  16.00 14.00 12.01  1.00
  Ionic Valenz
   ZVAL   =   6.00  5.00  4.00  1.00
  Atomic Wigner-Seitz radii
   RWIGS  =  -1.00 -1.00 -1.00 -1.00
  virtual crystal weights 
   VCA    =   1.00  1.00  1.00  1.00
   NELECT =     318.0000    total number of electrons
   NUPDOWN=      -1.0000    fix difference up-down

 DOS related values:
   EMIN   =  10.00;   EMAX   =-10.00  energy-range for DOS
   EFERMI =   0.00;   METHOD = LEGACY      
   ISMEAR =     0;   SIGMA  =   0.02  broadening in eV -4-tet -1-fermi 0-gaus

 Electronic relaxation 2 (details)
   IALGO  =     48    algorithm
   LDIAG  =      T    sub-space diagonalisation (order eigenvalues)
   LSUBROT=      F    optimize rotation matrix (better conditioning)
   TURBO    =      0    0=normal 1=particle mesh
   IRESTART =      0    0=no restart 2=restart with 2 vectors
   NREBOOT  =      0    no. of reboots
   NMIN     =      0    reboot dimension
   EREF     =   0.00    reference energy to select bands
   IMIX   =      4    mixing-type and parameters
     AMIX     =   0.40;   BMIX     =  1.00
     AMIX_MAG =   1.60;   BMIX_MAG =  1.00
     AMIN     =   0.10
     WC   =   100.;   INIMIX=   1;  MIXPRE=   1;  MAXMIX= -45

 Intra band minimization:
   WEIMIN = 0.0000     energy-eigenvalue tresh-hold
   EBREAK =  0.12E-06  absolut break condition
   DEPER  =   0.30     relativ break condition  

   TIME   =   0.40     timestep for ELM

  volume/ion in A,a.u.               =      25.29       170.64
  Fermi-wavevector in a.u.,A,eV,Ry     =   0.814806  1.539759  9.033019  0.663908
  Thomas-Fermi vector in A             =   1.924779
 
 Write flags
   LWAVE        =      F    write WAVECAR
   LDOWNSAMPLE  =      F    k-point downsampling of WAVECAR
   LCHARG       =      F    write CHGCAR
   LVTOT        =      F    write LOCPOT, total local potential
   LVHAR        =      F    write LOCPOT, Hartree potential only
   LELF         =      F    write electronic localiz. function (ELF)
   LORBIT       =     11    0 simple, 1 ext, 2 COOP (PROOUT), +10 PAW based schemes


 Dipole corrections
   LMONO  =      F    monopole corrections only (constant potential shift)
   LDIPOL =      F    correct potential (dipole corrections)
   IDIPOL =      0    1-x, 2-y, 3-z, 4-all directions 
   EPSILON=  1.0000000 bulk dielectric constant

 Exchange correlation treatment:
   GGA     =    --    GGA type
   LEXCH   =     8    internal setting for exchange type
   LIBXC   =     F    Libxc                    
   VOSKOWN =     0    Vosko Wilk Nusair interpolation
   LHFCALC =     F    Hartree Fock is set to
   LHFONE  =     F    Hartree Fock one center treatment
   AEXX    =    0.0000 exact exchange contribution

 Linear response parameters
   LEPSILON=     F    determine dielectric tensor
   LRPA    =     F    only Hartree local field effects (RPA)
   LNABLA  =     F    use nabla operator in PAW spheres
   LVEL    =     F    velocity operator in full k-point grid
   CSHIFT  =0.1000    complex shift for real part using Kramers Kronig
   OMEGAMAX=  -1.0    maximum frequency
   DEG_THRESHOLD= 0.2000000E-02 threshold for treating states as degnerate
   RTIME   =   -0.100 relaxation time in fs
  (WPLASMAI=    0.000 imaginary part of plasma frequency in eV, 0.658/RTIME)
   DFIELD  = 0.0000000 0.0000000 0.0000000 field for delta impulse in time
 
  Optional k-point grid parameters
   LKPOINTS_OPT  =     F    use optional k-point grid
   KPOINTS_OPT_MODE=     1    mode for optional k-point grid
 
 Orbital magnetization related:
   ORBITALMAG=     F  switch on orbital magnetization
   LCHIMAG   =     F  perturbation theory with respect to B field
   DQ        =  0.001000  dq finite difference perturbation B field
   LLRAUG    =     F  two centre corrections for induced B field
   LBONE     =     F  B-component reconstruction in AE one-centre
   LVGVCALC  =     T  calculate vGv susceptibility
   LVGVAPPL  =     F  apply vGv susceptibility instead of pGv for G=0

 Random number generation:
   RANDOM_GENERATOR = DEFAULT
   PCG_SEED         = not used


--------------------------------------------------------------------------------------------------------


 Static calculation
 charge density and potential remain constant during run
 non-spin polarized calculation
 RMM-DIIS sequential band-by-band
 perform sub-space diagonalisation
    before iterative eigenvector-optimisation
 no mixing
 using additional bands           53
 reciprocal scheme for non local part
 use partial core corrections
 calculate Harris-corrections to forces 
   (improved forces if not selfconsistent)
 use gradient corrections 
 WARNING: stress and forces are not correct
  (second derivative of E(xc) not defined)
 use of overlap-Matrix (Vanderbilt PP)
 Gauss-broadening in eV      SIGMA  =   0.02


--------------------------------------------------------------------------------------------------------


  energy-cutoff  :      470.00
  volume of cell :     2579.23
      direct lattice vectors                 reciprocal lattice vectors
    28.781000137  0.000000000  0.000000000     0.034745144  0.020060118  0.000000000
   -14.390500069 24.925077265  0.000000000     0.000000000  0.040120237  0.000000000
     0.000000000  0.000000000  3.595400095     0.000000000  0.000000000  0.278133163

  length of vectors
    28.781000137 28.781000137  3.595400095     0.040120237  0.040120237  0.278133163


 
 k-points in units of 2pi/SCALE and weight: K-Path Generated by VASPKIT.            
   0.00000000  0.00000000  0.00000000       0.022
   0.00434314  0.00250751  0.00000000       0.022
   0.00868629  0.00501503  0.00000000       0.022
   0.01302943  0.00752254  0.00000000       0.022
   0.01737257  0.01003006  0.00000000       0.022
   0.01737257  0.01003006  0.00000000       0.022
   0.01592486  0.01253757  0.00000000       0.022
   0.01447714  0.01504509  0.00000000       0.022
   0.01302943  0.01755260  0.00000000       0.022
   0.01158171  0.02006012  0.00000000       0.022
   0.01158171  0.02006012  0.00000000       0.022
   0.00868629  0.01504509  0.00000000       0.022
   0.00579086  0.01003006  0.00000000       0.022
   0.00289543  0.00501503  0.00000000       0.022
   0.00000000  0.00000000  0.00000000       0.022
   0.00000000  0.00000000  0.00000000       0.022
   0.00000000  0.00000000  0.03476665       0.022
   0.00000000  0.00000000  0.06953329       0.022
   0.00000000  0.00000000  0.10429994       0.022
   0.00000000  0.00000000  0.13906658       0.022
   0.00000000  0.00000000  0.13906658       0.022
   0.00434314  0.00250751  0.13906658       0.022
   0.00868629  0.00501503  0.13906658       0.022
   0.01302943  0.00752254  0.13906658       0.022
   0.01737257  0.01003006  0.13906658       0.022
   0.01737257  0.01003006  0.13906658       0.022
   0.01592486  0.01253757  0.13906658       0.022
   0.01447714  0.01504509  0.13906658       0.022
   0.01302943  0.01755260  0.13906658       0.022
   0.01158171  0.02006012  0.13906658       0.022
   0.01158171  0.02006012  0.13906658       0.022
   0.00868629  0.01504509  0.13906658       0.022
   0.00579086  0.01003006  0.13906658       0.022
   0.00289543  0.00501503  0.13906658       0.022
   0.00000000  0.00000000  0.13906658       0.022
   0.01737257  0.01003006  0.13906658       0.022
   0.01737257  0.01003006  0.10429994       0.022
   0.01737257  0.01003006  0.06953329       0.022
   0.01737257  0.01003006  0.03476665       0.022
   0.01737257  0.01003006  0.00000000       0.022
   0.01158171  0.02006012  0.13906658       0.022
   0.01158171  0.02006012  0.10429994       0.022
   0.01158171  0.02006012  0.06953329       0.022
   0.01158171  0.02006012  0.03476665       0.022
   0.01158171  0.02006012  0.00000000       0.022
 
 k-points in reciprocal lattice and weights: K-Path Generated by VASPKIT.            
   0.00000000  0.00000000  0.00000000       0.022
   0.12500000  0.00000000  0.00000000       0.022
   0.25000000  0.00000000  0.00000000       0.022
   0.37500000  0.00000000  0.00000000       0.022
   0.50000000  0.00000000  0.00000000       0.022
   0.50000000  0.00000000  0.00000000       0.022
   0.45833333  0.08333333  0.00000000       0.022
   0.41666667  0.16666667  0.00000000       0.022
   0.37500000  0.25000000  0.00000000       0.022
   0.33333333  0.33333333  0.00000000       0.022
   0.33333333  0.33333333  0.00000000       0.022
   0.25000000  0.25000000  0.00000000       0.022
   0.16666667  0.16666667  0.00000000       0.022
   0.08333333  0.08333333  0.00000000       0.022
   0.00000000  0.00000000  0.00000000       0.022
   0.00000000  0.00000000  0.00000000       0.022
   0.00000000  0.00000000  0.12500000       0.022
   0.00000000  0.00000000  0.25000000       0.022
   0.00000000  0.00000000  0.37500000       0.022
   0.00000000  0.00000000  0.50000000       0.022
   0.00000000  0.00000000  0.50000000       0.022
   0.12500000  0.00000000  0.50000000       0.022
   0.25000000  0.00000000  0.50000000       0.022
   0.37500000  0.00000000  0.50000000       0.022
   0.50000000  0.00000000  0.50000000       0.022
   0.50000000  0.00000000  0.50000000       0.022
   0.45833333  0.08333333  0.50000000       0.022
   0.41666667  0.16666667  0.50000000       0.022
   0.37500000  0.25000000  0.50000000       0.022
   0.33333333  0.33333333  0.50000000       0.022
   0.33333333  0.33333333  0.50000000       0.022
   0.25000000  0.25000000  0.50000000       0.022
   0.16666667  0.16666667  0.50000000       0.022
   0.08333333  0.08333333  0.50000000       0.022
   0.00000000  0.00000000  0.50000000       0.022
   0.50000000  0.00000000  0.50000000       0.022
   0.50000000  0.00000000  0.37500000       0.022
   0.50000000  0.00000000  0.25000000       0.022
   0.50000000  0.00000000  0.12500000       0.022
   0.50000000  0.00000000  0.00000000       0.022
   0.33333333  0.33333333  0.50000000       0.022
   0.33333333  0.33333333  0.37500000       0.022
   0.33333333  0.33333333  0.25000000       0.022
   0.33333333  0.33333333  0.12500000       0.022
   0.33333333  0.33333333  0.00000000       0.022
 
 position of ions in fractional coordinates (direct lattice) 
   0.44344093  0.72304813  0.50000000
   0.27695187  0.72039280  0.50000000
   0.27960720  0.55655907  0.50000000
   0.72039280  0.44344093  0.50000000
   0.72304813  0.27960720  0.50000000
   0.55655907  0.27695187  0.50000000
   0.80951639  0.44047072  0.50000000
   0.55952925  0.36904567  0.50000000
   0.63095436  0.19048361  0.50000000
   0.19048361  0.55952925  0.50000000
   0.44047072  0.63095436  0.50000000
   0.36904567  0.80951639  0.50000000
   0.72317458  0.36247742  0.50000000
   0.63752258  0.36069716  0.50000000
   0.63930284  0.27682542  0.50000000
   0.27682542  0.63752258  0.50000000
   0.36247742  0.63930284  0.50000000
   0.36069716  0.72317458  0.50000000
   0.95550071  0.53066247  0.50000000
   0.46933753  0.42483825  0.50000000
   0.57516175  0.04449929  0.50000000
   0.04449929  0.46933753  0.50000000
   0.53066247  0.57516175  0.50000000
   0.42483825  0.95550071  0.50000000
   0.90111089  0.51485178  0.50000000
   0.48514822  0.38625911  0.50000000
   0.61374089  0.09888911  0.50000000
   0.09888911  0.48514822  0.50000000
   0.51485178  0.61374089  0.50000000
   0.38625911  0.90111089  0.50000000
   0.69551931  0.39228751  0.50000000
   0.60771249  0.30323181  0.50000000
   0.69676819  0.30448069  0.50000000
   0.30448069  0.60771249  0.50000000
   0.39228751  0.69676819  0.50000000
   0.30323181  0.69551931  0.50000000
   0.77722205  0.38727282  0.50000000
   0.61272718  0.38994923  0.50000000
   0.61005077  0.22277795  0.50000000
   0.22277795  0.61272718  0.50000000
   0.38727282  0.61005077  0.50000000
   0.38994923  0.77722205  0.50000000
   0.86341562  0.45928735  0.50000000
   0.54071262  0.40412827  0.50000000
   0.59587170  0.13658438  0.50000000
   0.13658438  0.54071262  0.50000000
   0.45928735  0.59587170  0.50000000
   0.40412827  0.86341562  0.50000000
   0.88097521  0.42137329  0.50000000
   0.57862671  0.45960192  0.50000000
   0.54039808  0.11902479  0.50000000
   0.11902479  0.57862671  0.50000000
   0.42137329  0.54039808  0.50000000
   0.45960192  0.88097521  0.50000000
   0.93413587  0.43786815  0.50000000
   0.56213185  0.49626773  0.50000000
   0.50373227  0.06586413  0.50000000
   0.06586413  0.56213185  0.50000000
   0.43786815  0.50373227  0.50000000
   0.49626773  0.93413587  0.50000000
   0.97215723  0.49244681  0.50000000
   0.50755319  0.47971042  0.50000000
   0.52028958  0.02784277  0.50000000
   0.02784277  0.50755319  0.50000000
   0.49244681  0.52028958  0.50000000
   0.47971042  0.97215723  0.50000000
   0.79301714  0.36033852  0.50000000
   0.63966148  0.43267862  0.50000000
   0.56732138  0.20698286  0.50000000
   0.20698286  0.63966148  0.50000000
   0.36033852  0.56732138  0.50000000
   0.43267862  0.79301714  0.50000000
   0.79038228  0.46305579  0.50000000
   0.53694418  0.32732649  0.50000000
   0.67267354  0.20961772  0.50000000
   0.20961772  0.53694418  0.50000000
   0.46305579  0.67267354  0.50000000
   0.32732649  0.79038228  0.50000000
   0.85384751  0.37860103  0.50000000
   0.62139897  0.47524648  0.50000000
   0.52475352  0.14615249  0.50000000
   0.14615249  0.62139897  0.50000000
   0.37860103  0.52475352  0.50000000
   0.47524648  0.85384751  0.50000000
   0.94580772  0.40735970  0.50000000
   0.59264027  0.53844805  0.50000000
   0.46155198  0.05419228  0.50000000
   0.05419228  0.59264027  0.50000000
   0.40735970  0.46155198  0.50000000
   0.53844805  0.94580772  0.50000000
   0.98391235  0.57347990  0.50000000
   0.42652010  0.41043245  0.50000000
   0.58956755  0.01608765  0.50000000
   0.01608765  0.42652010  0.50000000
   0.57347990  0.58956755  0.50000000
   0.41043245  0.98391235  0.50000000
   0.11183654  0.45581160  0.50000000
   0.45581161  0.34397505  0.50000000
   0.34397505  0.88816345  0.50000000
   0.54418838  0.65602495  0.50000000
   0.88816345  0.54418839  0.50000000
   0.65602495  0.11183656  0.50000000
 
 position of ions in cartesian coordinates  (Angst):
   2.35764930 18.02203051  1.79770005
  -2.39586083 17.95584620  1.79770005
   0.03821153 13.87227782  1.79770005
  14.35228854 11.05279944  1.79770005
  16.78636090  6.96923106  1.79770005
  12.03285077  6.90304676  1.79770005
  16.96009741 10.97876673  1.79770005
  10.79305968  9.19849184  1.79770005
  15.41834312  4.74781870  1.79770005
  -2.56959690 13.94630979  1.79770005
   3.59743909 15.72658617  1.79770005
  -1.02784219 20.17725857  1.79770005
  15.59745635  9.03477770  1.79770005
  13.15792496  8.99040458  1.79770005
  14.41611890  6.89989498  1.79770005
  -1.20695628 15.89029957  1.79770005
   1.23257511 15.93467268  1.79770005
  -0.02561883 18.02518228  1.79770005
  19.86376776 13.22680307  1.79770005
   7.39436865 10.58912621  1.79770005
  15.91336337  1.10914824  1.79770005
  -5.47326769 11.69827420  1.79770005
   6.99613142 14.33595106  1.79770005
  -1.52286330 23.81592902  1.79770005
  18.52589807 12.83272040  1.79770005
   8.40458924  9.62753816  1.79770005
  16.24101290  2.46481871  1.79770005
  -4.13539801 12.09235687  1.79770005
   5.98591083 15.29753910  1.79770005
  -1.85051283 22.46025856  1.79770005
  14.37252792  9.77779650  1.79770005
  13.12691588  7.55807629  1.79770005
  15.67205598  7.58920472  1.79770005
   0.01797215 15.14728077  1.79770005
   1.26358419 17.36700097  1.79770005
  -1.28155591 17.33587254  1.79770005
  16.79617838  9.65280496  1.79770005
  12.02333663  9.71951469  1.79770005
  14.35198519  5.55275762  1.79770005
  -2.40567832 15.27227230  1.79770005
   2.36716344 15.20556258  1.79770005
   0.03851488 19.37231965  1.79770005
  18.24059044 11.44777269  1.79770005
   9.74664209 10.07292836  1.79770005
  15.18426595  3.40437623  1.79770005
  -3.85008994 13.47730383  1.79770005
   4.64385754 14.85214816  1.79770005
  -0.79376675 21.52070104  1.79770005
  19.29157528 10.50276181  1.79770005
  10.03955396 11.45561337  1.79770005
  13.84037097  2.96670209  1.79770005
  -4.90107521 14.42231546  1.79770005
   4.35094611 13.46946390  1.79770005
   0.55012910 21.95837518  1.79770005
  20.58422296 10.91389747  1.79770005
   9.03717605 12.36951152  1.79770005
  13.55010077  1.64166853  1.79770005
  -6.19372289 14.01117980  1.79770005
   5.35332402 12.55556575  1.79770005
   0.84039930 23.28340874  1.79770005
  20.89310152 12.27427479  1.79770005
   7.70461560 11.95681928  1.79770005
  14.57378309  0.69398319  1.79770005
  -6.50260145 12.65080248  1.79770005
   6.68588447 12.96825798  1.79770005
  -0.18328302 24.23109407  1.79770005
  17.63837492  8.98146545  1.79770005
  12.18363543 10.78454804  1.79770005
  13.34948986  5.15906378  1.79770005
  -3.24787485 15.94361181  1.79770005
   2.20686464 14.14052923  1.79770005
   1.04101021 19.76601349  1.79770005
  16.08438813 11.54170134  1.79770005
  10.74339864  8.15863805  1.79770005
  16.34371343  5.22473787  1.79770005
  -1.69388763 13.38337517  1.79770005
   3.64710013 16.76643996  1.79770005
  -1.95321250 19.70033940  1.79770005
  19.12632715  9.43665992  1.79770005
  11.04544934 11.84555523  1.79770005
  12.99972371  3.64286211  1.79770005
  -4.73582709 15.48841734  1.79770005
   3.34505073 13.07952203  1.79770005
   1.39077636 21.28221516  1.79770005
  21.35918233 10.15347200  1.79770005
   9.30824299 13.42085925  1.79770005
  12.50407359  1.35074677  1.79770005
  -6.96868183 14.77160452  1.79770005
   5.08225578 11.50421876  1.79770005
   1.88642734 23.57433050  1.79770005
  20.06531894 14.29403082  1.79770005
   6.36934686 10.23006053  1.79770005
  16.73683441  0.40098592  1.79770005
  -5.67481887 10.63104645  1.79770005
   8.02115321 14.69501674  1.79770005
  -2.34633434 24.52409135  1.79770005
  -3.34058926 11.36113936  1.79770005
   8.16874095  8.57360477  1.79770005
  -2.88117011 22.13754264  1.79770005
   6.22175890 16.35147254  1.79770005
  17.73108918 13.56393775  1.79770005
  17.27167011  2.78753483  1.79770005
 


--------------------------------------------------------------------------------------------------------


 k-point   1 :   0.0000 0.0000 0.0000  plane waves:   59875
 k-point   2 :   0.1250 0.0000 0.0000  plane waves:   59826
 k-point   3 :   0.2500 0.0000 0.0000  plane waves:   59830
 k-point   4 :   0.3750 0.0000 0.0000  plane waves:   59800
 k-point   5 :   0.5000 0.0000 0.0000  plane waves:   59822
 k-point   6 :   0.5000 0.0000 0.0000  plane waves:   59822
 k-point   7 :   0.4583 0.0833 0.0000  plane waves:   59808
 k-point   8 :   0.4167 0.1667 0.0000  plane waves:   59815
 k-point   9 :   0.3750 0.2500 0.0000  plane waves:   59825
 k-point  10 :   0.3333 0.3333 0.0000  plane waves:   59805
 k-point  11 :   0.3333 0.3333 0.0000  plane waves:   59805
 k-point  12 :   0.2500 0.2500 0.0000  plane waves:   59791
 k-point  13 :   0.1667 0.1667 0.0000  plane waves:   59819
 k-point  14 :   0.0833 0.0833 0.0000  plane waves:   59829
 k-point  15 :   0.0000 0.0000 0.0000  plane waves:   59875
 k-point  16 :   0.0000 0.0000 0.0000  plane waves:   59875
 k-point  17 :   0.0000 0.0000 0.1250  plane waves:   59815
 k-point  18 :   0.0000 0.0000 0.2500  plane waves:   59641
 k-point  19 :   0.0000 0.0000 0.3750  plane waves:   59544
 k-point  20 :   0.0000 0.0000 0.5000  plane waves:   59604
 k-point  21 :   0.0000 0.0000 0.5000  plane waves:   59604
 k-point  22 :   0.1250 0.0000 0.5000  plane waves:   59562
 k-point  23 :   0.2500 0.0000 0.5000  plane waves:   59578
 k-point  24 :   0.3750 0.0000 0.5000  plane waves:   59570
 k-point  25 :   0.5000 0.0000 0.5000  plane waves:   59548
 k-point  26 :   0.5000 0.0000 0.5000  plane waves:   59548
 k-point  27 :   0.4583 0.0833 0.5000  plane waves:   59564
 k-point  28 :   0.4167 0.1667 0.5000  plane waves:   59568
 k-point  29 :   0.3750 0.2500 0.5000  plane waves:   59594
 k-point  30 :   0.3333 0.3333 0.5000  plane waves:   59604
 k-point  31 :   0.3333 0.3333 0.5000  plane waves:   59604
 k-point  32 :   0.2500 0.2500 0.5000  plane waves:   59564
 k-point  33 :   0.1667 0.1667 0.5000  plane waves:   59590
 k-point  34 :   0.0833 0.0833 0.5000  plane waves:   59582
 k-point  35 :   0.0000 0.0000 0.5000  plane waves:   59604
 k-point  36 :   0.5000 0.0000 0.5000  plane waves:   59548
 k-point  37 :   0.5000 0.0000 0.3750  plane waves:   59560
 k-point  38 :   0.5000 0.0000 0.2500  plane waves:   59678
 k-point  39 :   0.5000 0.0000 0.1250  plane waves:   59794
 k-point  40 :   0.5000 0.0000 0.0000  plane waves:   59822
 k-point  41 :   0.3333 0.3333 0.5000  plane waves:   59604
 k-point  42 :   0.3333 0.3333 0.3750  plane waves:   59565
 k-point  43 :   0.3333 0.3333 0.2500  plane waves:   59745
 k-point  44 :   0.3333 0.3333 0.1250  plane waves:   59724
 k-point  45 :   0.3333 0.3333 0.0000  plane waves:   59805

 maximum and minimum number of plane-waves per node :      1326     1133

 maximum number of plane-waves:     59875
 maximum index in each direction: 
   IXMAX=   50   IYMAX=   50   IZMAX=    6
   IXMIN=  -51   IYMIN=  -51   IZMIN=   -6


 parallel 3D FFT for wavefunctions:
    minimum data exchange during FFTs selected (reduces bandwidth)
 parallel 3D FFT for charge:
    minimum data exchange during FFTs selected (reduces bandwidth)


 total amount of memory used by VASP MPI-rank0   162414. kBytes
=======================================================================

   base      :      30000. kBytes
   nonl-proj :      17044. kBytes
   fftplans  :       4877. kBytes
   grid      :       9895. kBytes
   one-center:          9. kBytes
   wavefun   :     100589. kBytes
 
     INWAV:  cpu time      0.0000: real time      0.0002
 initial charge density was supplied:
 number of electron     318.0000015 magnetization 
 keeping initial charge density in first step


--------------------------------------------------------------------------------------------------------


 Maximum index for augmentation-charges          344 (set IRDMAX)


--------------------------------------------------------------------------------------------------------


 First call to EWALD:  gamma=   0.129
 Maximum number of real-space cells 2x 2x 9
 Maximum number of reciprocal cells 5x 5x 1

    FEWALD:  cpu time      0.0032: real time      0.0169


--------------------------------------- Ionic step        1  -------------------------------------------




--------------------------------------- Iteration      1(   1)  ---------------------------------------


    POTLOK:  cpu time      0.0936: real time      0.1901
    SETDIJ:  cpu time      0.0070: real time      0.0106
    EDDIAG:  cpu time      5.5284: real time      6.6835
  RMM-DIIS:  cpu time     18.5152: real time     18.5919
    ORTHCH:  cpu time      0.8965: real time      0.8989
       DOS:  cpu time      0.0109: real time      0.0110
    --------------------------------------------
      LOOP:  cpu time     25.0515: real time     26.3860

 eigenvalue-minimisations  :  9540
 total energy-change (2. order) : 0.3797606E+04  (-0.8456074E+04)
 number of electron     318.0000015 magnetization 
 augmentation part      318.0000015 magnetization 

 Free energy of the ion-electron system (eV)
  ---------------------------------------------------
  alpha Z        PSCENC =       180.61551870
  Ewald energy   TEWEN  =     57218.86460381
  -Hartree energ DENC   =    -68368.69774410
  -exchange      EXHF   =         0.00000000
  -V(xc)+E(xc)   XCENC  =      1140.45794144
  PAW double counting   =     30399.80454828   -30458.91843065
  entropy T*S    EENTRO =        -0.00319244
  eigenvalues    EBANDS =      1108.81843654
  atomic energy  EATOM  =     12576.66451283
  Solvation  Ediel_sol  =         0.00000000
  ---------------------------------------------------
  free energy    TOTEN  =      3797.60619440 eV

  energy without entropy =     3797.60938683  energy(sigma->0) =     3797.60779061


--------------------------------------------------------------------------------------------------------




--------------------------------------- Iteration      1(   2)  ---------------------------------------


    EDDIAG:  cpu time      5.3539: real time      5.3693
  RMM-DIIS:  cpu time     18.4754: real time     18.5354
    ORTHCH:  cpu time      0.8998: real time      0.9023
       DOS:  cpu time      0.0115: real time      0.0115
    --------------------------------------------
      LOOP:  cpu time     24.7406: real time     24.8185

 eigenvalue-minimisations  :  9540
 total energy-change (2. order) :-0.2566004E+04  (-0.2880783E+04)
 number of electron     318.0000015 magnetization 
 augmentation part      318.0000015 magnetization 

 Free energy of the ion-electron system (eV)
  ---------------------------------------------------
  alpha Z        PSCENC =       180.61551870
  Ewald energy   TEWEN  =     57218.86460381
  -Hartree energ DENC   =    -68368.69774410
  -exchange      EXHF   =         0.00000000
  -V(xc)+E(xc)   XCENC  =      1140.45794144
  PAW double counting   =     30399.80454828   -30458.91843065
  entropy T*S    EENTRO =        -0.00394900
  eigenvalues    EBANDS =     -1457.18450000
  atomic energy  EATOM  =     12576.66451283
  Solvation  Ediel_sol  =         0.00000000
  ---------------------------------------------------
  free energy    TOTEN  =      1231.60250130 eV

  energy without entropy =     1231.60645029  energy(sigma->0) =     1231.60447579


--------------------------------------------------------------------------------------------------------




--------------------------------------- Iteration      1(   3)  ---------------------------------------


    EDDIAG:  cpu time      5.3590: real time      5.3847
  RMM-DIIS:  cpu time     18.4646: real time     18.5245
    ORTHCH:  cpu time      0.8958: real time      0.8982
       DOS:  cpu time      0.0130: real time      0.0131
    --------------------------------------------
      LOOP:  cpu time     24.7324: real time     24.8205

 eigenvalue-minimisations  :  9540
 total energy-change (2. order) :-0.7964544E+03  (-0.1245439E+04)
 number of electron     318.0000015 magnetization 
 augmentation part      318.0000015 magnetization 

 Free energy of the ion-electron system (eV)
  ---------------------------------------------------
  alpha Z        PSCENC =       180.61551870
  Ewald energy   TEWEN  =     57218.86460381
  -Hartree energ DENC   =    -68368.69774410
  -exchange      EXHF   =         0.00000000
  -V(xc)+E(xc)   XCENC  =      1140.45794144
  PAW double counting   =     30399.80454828   -30458.91843065
  entropy T*S    EENTRO =        -0.00690942
  eigenvalues    EBANDS =     -2253.63590541
  atomic energy  EATOM  =     12576.66451283
  Solvation  Ediel_sol  =         0.00000000
  ---------------------------------------------------
  free energy    TOTEN  =       435.14813546 eV

  energy without entropy =      435.15504488  energy(sigma->0) =      435.15159017


--------------------------------------------------------------------------------------------------------




--------------------------------------- Iteration      1(   4)  ---------------------------------------


    EDDIAG:  cpu time      5.3457: real time      5.3673
  RMM-DIIS:  cpu time     18.4851: real time     18.5446
    ORTHCH:  cpu time      0.8978: real time      0.9002
       DOS:  cpu time      0.0123: real time      0.0123
    --------------------------------------------
      LOOP:  cpu time     24.7409: real time     24.8244

 eigenvalue-minimisations  :  9540
 total energy-change (2. order) :-0.6220431E+03  (-0.6178280E+03)
 number of electron     318.0000015 magnetization 
 augmentation part      318.0000015 magnetization 

 Free energy of the ion-electron system (eV)
  ---------------------------------------------------
  alpha Z        PSCENC =       180.61551870
  Ewald energy   TEWEN  =     57218.86460381
  -Hartree energ DENC   =    -68368.69774410
  -exchange      EXHF   =         0.00000000
  -V(xc)+E(xc)   XCENC  =      1140.45794144
  PAW double counting   =     30399.80454828   -30458.91843065
  entropy T*S    EENTRO =        -0.00469470
  eigenvalues    EBANDS =     -2875.68125145
  atomic energy  EATOM  =     12576.66451283
  Solvation  Ediel_sol  =         0.00000000
  ---------------------------------------------------
  free energy    TOTEN  =      -186.89499586 eV

  energy without entropy =     -186.89030116  energy(sigma->0) =     -186.89264851


--------------------------------------------------------------------------------------------------------




--------------------------------------- Iteration      1(   5)  ---------------------------------------


    EDDIAG:  cpu time      5.3546: real time      5.3799
  RMM-DIIS:  cpu time     18.4731: real time     18.5331
    ORTHCH:  cpu time      0.8973: real time      0.8998
       DOS:  cpu time      0.0097: real time      0.0098
    --------------------------------------------
      LOOP:  cpu time     24.7348: real time     24.8225

 eigenvalue-minimisations  :  9540
 total energy-change (2. order) :-0.2972247E+03  (-0.2547052E+03)
 number of electron     318.0000015 magnetization 
 augmentation part      318.0000015 magnetization 

 Free energy of the ion-electron system (eV)
  ---------------------------------------------------
  alpha Z        PSCENC =       180.61551870
  Ewald energy   TEWEN  =     57218.86460381
  -Hartree energ DENC   =    -68368.69774410
  -exchange      EXHF   =         0.00000000
  -V(xc)+E(xc)   XCENC  =      1140.45794144
  PAW double counting   =     30399.80454828   -30458.91843065
  entropy T*S    EENTRO =        -0.00223697
  eigenvalues    EBANDS =     -3172.90845669
  atomic energy  EATOM  =     12576.66451283
  Solvation  Ediel_sol  =         0.00000000
  ---------------------------------------------------
  free energy    TOTEN  =      -484.11974336 eV

  energy without entropy =     -484.11750639  energy(sigma->0) =     -484.11862488


--------------------------------------------------------------------------------------------------------




--------------------------------------- Iteration      1(   6)  ---------------------------------------


    EDDIAG:  cpu time      5.3533: real time      5.3716
  RMM-DIIS:  cpu time     18.4888: real time     18.5484
    ORTHCH:  cpu time      0.9014: real time      0.9040
       DOS:  cpu time      0.0111: real time      0.0112
    --------------------------------------------
      LOOP:  cpu time     24.7546: real time     24.8352

 eigenvalue-minimisations  :  9540
 total energy-change (2. order) :-0.1408867E+03  (-0.1091671E+03)
 number of electron     318.0000015 magnetization 
 augmentation part      318.0000015 magnetization 

 Free energy of the ion-electron system (eV)
  ---------------------------------------------------
  alpha Z        PSCENC =       180.61551870
  Ewald energy   TEWEN  =     57218.86460381
  -Hartree energ DENC   =    -68368.69774410
  -exchange      EXHF   =         0.00000000
  -V(xc)+E(xc)   XCENC  =      1140.45794144
  PAW double counting   =     30399.80454828   -30458.91843065
  entropy T*S    EENTRO =        -0.00075764
  eigenvalues    EBANDS =     -3313.79662629
  atomic energy  EATOM  =     12576.66451283
  Solvation  Ediel_sol  =         0.00000000
  ---------------------------------------------------
  free energy    TOTEN  =      -625.00643364 eV

  energy without entropy =     -625.00567600  energy(sigma->0) =     -625.00605482


--------------------------------------------------------------------------------------------------------




--------------------------------------- Iteration      1(   7)  ---------------------------------------


    EDDIAG:  cpu time      5.3426: real time      5.3714
  RMM-DIIS:  cpu time     18.4542: real time     18.5146
    ORTHCH:  cpu time      0.8974: real time      0.8998
       DOS:  cpu time      0.0116: real time      0.0117
    --------------------------------------------
      LOOP:  cpu time     24.7058: real time     24.7976

 eigenvalue-minimisations  :  9540
 total energy-change (2. order) :-0.4536519E+02  (-0.3969155E+02)
 number of electron     318.0000015 magnetization 
 augmentation part      318.0000015 magnetization 

 Free energy of the ion-electron system (eV)
  ---------------------------------------------------
  alpha Z        PSCENC =       180.61551870
  Ewald energy   TEWEN  =     57218.86460381
  -Hartree energ DENC   =    -68368.69774410
  -exchange      EXHF   =         0.00000000
  -V(xc)+E(xc)   XCENC  =      1140.45794144
  PAW double counting   =     30399.80454828   -30458.91843065
  entropy T*S    EENTRO =        -0.00091920
  eigenvalues    EBANDS =     -3359.16165724
  atomic energy  EATOM  =     12576.66451283
  Solvation  Ediel_sol  =         0.00000000
  ---------------------------------------------------
  free energy    TOTEN  =      -670.37162615 eV

  energy without entropy =     -670.37070695  energy(sigma->0) =     -670.37116655


--------------------------------------------------------------------------------------------------------




--------------------------------------- Iteration      1(   8)  ---------------------------------------


    EDDIAG:  cpu time      5.3498: real time      5.3722
  RMM-DIIS:  cpu time     18.4473: real time     18.5066
    ORTHCH:  cpu time      0.8960: real time      0.8985
       DOS:  cpu time      0.0120: real time      0.0120
    --------------------------------------------
      LOOP:  cpu time     24.7051: real time     24.7893

 eigenvalue-minimisations  :  9540
 total energy-change (2. order) :-0.2094096E+02  (-0.1643274E+02)
 number of electron     318.0000015 magnetization 
 augmentation part      318.0000015 magnetization 

 Free energy of the ion-electron system (eV)
  ---------------------------------------------------
  alpha Z        PSCENC =       180.61551870
  Ewald energy   TEWEN  =     57218.86460381
  -Hartree energ DENC   =    -68368.69774410
  -exchange      EXHF   =         0.00000000
  -V(xc)+E(xc)   XCENC  =      1140.45794144
  PAW double counting   =     30399.80454828   -30458.91843065
  entropy T*S    EENTRO =        -0.00105816
  eigenvalues    EBANDS =     -3380.10247339
  atomic energy  EATOM  =     12576.66451283
  Solvation  Ediel_sol  =         0.00000000
  ---------------------------------------------------
  free energy    TOTEN  =      -691.31258126 eV

  energy without entropy =     -691.31152310  energy(sigma->0) =     -691.31205218


--------------------------------------------------------------------------------------------------------




--------------------------------------- Iteration      1(   9)  ---------------------------------------


    EDDIAG:  cpu time      5.3631: real time      5.3888
  RMM-DIIS:  cpu time     45.3742: real time     45.8885
    ORTHCH:  cpu time      0.8981: real time      0.9006
       DOS:  cpu time      0.0072: real time      0.0072
    --------------------------------------------
      LOOP:  cpu time     51.6425: real time     52.1850

 eigenvalue-minimisations  : 25826
 total energy-change (2. order) :-0.1127684E+02  (-0.1089305E+02)
 number of electron     318.0000015 magnetization 
 augmentation part      318.0000015 magnetization 

 Free energy of the ion-electron system (eV)
  ---------------------------------------------------
  alpha Z        PSCENC =       180.61551870
  Ewald energy   TEWEN  =     57218.86460381
  -Hartree energ DENC   =    -68368.69774410
  -exchange      EXHF   =         0.00000000
  -V(xc)+E(xc)   XCENC  =      1140.45794144
  PAW double counting   =     30399.80454828   -30458.91843065
  entropy T*S    EENTRO =        -0.00000000
  eigenvalues    EBANDS =     -3391.38037286
  atomic energy  EATOM  =     12576.66451283
  Solvation  Ediel_sol  =         0.00000000
  ---------------------------------------------------
[...]
   0.102E+03 0.661E+02 -.471E-07   -.108E+03 -.680E+02 -.369E-16   0.595E+01 0.192E+01 0.362E-22   -.211E-01 -.109E-01 0.166E-07
   0.108E+03 -.554E+02 -.663E-07   -.113E+03 0.596E+02 -.224E-15   0.464E+01 -.419E+01 -.181E-22   -.201E-01 0.127E-01 0.166E-07
   -.618E+01 0.121E+03 -.674E-07   0.487E+01 -.128E+03 -.106E-15   0.131E+01 0.611E+01 0.264E-21   -.132E-02 -.235E-01 0.166E-07
   -.102E+03 -.661E+02 -.630E-07   0.108E+03 0.680E+02 -.641E-15   -.595E+01 -.192E+01 -.179E-21   0.211E-01 0.109E-01 0.166E-07
   0.417E+02 -.138E+03 -.612E-07   -.477E+02 0.141E+03 0.695E-15   0.597E+01 -.362E+01 -.226E-22   -.688E-02 0.155E-01 0.203E-07
   0.986E+02 0.105E+03 -.508E-07   -.986E+02 -.112E+03 0.413E-15   0.149E+00 0.698E+01 0.486E-22   -.955E-02 -.138E-01 0.203E-07
   -.140E+03 0.329E+02 -.685E-07   0.146E+03 -.294E+02 0.296E-15   -.612E+01 -.336E+01 0.415E-22   0.169E-01 -.206E-02 0.203E-07
   -.417E+02 0.138E+03 -.540E-07   0.477E+02 -.141E+03 -.127E-15   -.597E+01 0.362E+01 0.214E-23   0.687E-02 -.155E-01 0.203E-07
   -.986E+02 -.105E+03 -.644E-07   0.986E+02 0.112E+03 0.698E-15   -.149E+00 -.698E+01 0.923E-22   0.950E-02 0.138E-01 0.203E-07
   0.140E+03 -.329E+02 -.467E-07   -.146E+03 0.294E+02 0.250E-16   0.612E+01 0.336E+01 -.312E-23   -.169E-01 0.205E-02 0.203E-07
   -.678E+02 0.100E+03 -.506E-07   0.672E+02 -.106E+03 0.755E-15   0.711E+00 0.590E+01 0.929E-22   0.397E-02 -.228E-01 0.136E-07
   -.527E+02 -.109E+03 -.479E-07   0.582E+02 0.111E+03 0.510E-15   -.547E+01 -.234E+01 -.500E-22   0.175E-01 0.152E-01 0.136E-07
   0.121E+03 0.871E+01 -.492E-07   -.125E+03 -.519E+01 0.699E-15   0.476E+01 -.357E+01 0.665E-23   -.217E-01 0.773E-02 0.136E-07
   0.678E+02 -.100E+03 -.521E-07   -.672E+02 0.106E+03 0.129E-14   -.711E+00 -.590E+01 0.723E-22   -.397E-02 0.228E-01 0.136E-07
   0.527E+02 0.109E+03 -.549E-07   -.582E+02 -.111E+03 0.175E-15   0.547E+01 0.234E+01 0.620E-22   -.175E-01 -.153E-01 0.136E-07
   -.121E+03 -.871E+01 -.535E-07   0.125E+03 0.519E+01 0.463E-15   -.476E+01 0.357E+01 -.108E-22   0.217E-01 -.773E-02 0.136E-07
   -.812E+02 0.116E+03 -.429E-07   0.853E+02 -.120E+03 0.420E-15   -.409E+01 0.413E+01 0.275E-22   0.160E-01 -.192E-01 0.127E-07
   -.601E+02 -.128E+03 -.384E-07   0.616E+02 0.134E+03 0.270E-15   -.153E+01 -.560E+01 0.213E-22   0.838E-02 0.234E-01 0.127E-07
   0.141E+03 0.122E+02 -.506E-07   -.147E+03 -.137E+02 -.492E-15   0.562E+01 0.148E+01 0.755E-23   -.244E-01 -.418E-02 0.127E-07
   0.812E+02 -.116E+03 -.571E-07   -.853E+02 0.120E+03 -.355E-15   0.409E+01 -.413E+01 -.276E-22   -.160E-01 0.192E-01 0.127E-07
   0.601E+02 0.128E+03 -.616E-07   -.616E+02 -.134E+03 0.361E-15   0.153E+01 0.560E+01 -.218E-22   -.839E-02 -.234E-01 0.127E-07
   -.141E+03 -.122E+02 -.493E-07   0.147E+03 0.137E+02 -.113E-14   -.562E+01 -.148E+01 -.129E-22   0.244E-01 0.418E-02 0.127E-07
   0.354E+02 -.144E+03 -.574E-07   -.344E+02 0.150E+03 0.356E-15   -.990E+00 -.571E+01 -.408E-23   0.238E-02 0.264E-01 0.124E-07
   0.107E+03 0.103E+03 -.615E-07   -.113E+03 -.105E+03 -.477E-16   0.544E+01 0.200E+01 -.103E-22   -.242E-01 -.105E-01 0.124E-07
   -.143E+03 0.414E+02 -.476E-07   0.147E+03 -.452E+02 -.457E-15   -.445E+01 0.371E+01 -.184E-22   0.214E-01 -.156E-01 0.124E-07
   -.354E+02 0.144E+03 -.416E-07   0.344E+02 -.150E+03 0.112E-15   0.990E+00 0.571E+01 0.120E-22   -.237E-02 -.264E-01 0.124E-07
   -.107E+03 -.103E+03 -.375E-07   0.113E+03 0.105E+03 -.327E-16   -.544E+01 -.200E+01 0.410E-22   0.242E-01 0.105E-01 0.124E-07
   0.143E+03 -.414E+02 -.514E-07   -.147E+03 0.452E+02 0.189E-15   0.445E+01 -.371E+01 -.281E-22   -.214E-01 0.156E-01 0.124E-07
   -.678E+02 0.146E+03 -.513E-07   0.724E+02 -.151E+03 0.987E-17   -.430E+01 0.404E+01 0.369E-22   0.163E-01 -.193E-01 0.116E-07
   0.928E+02 0.132E+03 -.449E-07   -.941E+02 -.138E+03 -.643E-15   0.135E+01 0.574E+01 -.120E-23   -.876E-02 -.240E-01 0.116E-07
   0.161E+03 -.144E+02 -.509E-07   -.167E+03 0.125E+02 0.789E-15   0.565E+01 0.170E+01 0.760E-22   -.250E-01 -.465E-02 0.116E-07
   -.928E+02 -.132E+03 -.515E-07   0.941E+02 0.138E+03 0.487E-15   -.135E+01 -.574E+01 -.594E-23   0.877E-02 0.240E-01 0.116E-07
   0.678E+02 -.146E+03 -.452E-07   -.724E+02 0.151E+03 -.493E-15   0.430E+01 -.404E+01 -.227E-22   -.163E-01 0.193E-01 0.116E-07
   -.161E+03 0.144E+02 -.456E-07   0.167E+03 -.125E+02 0.522E-15   -.565E+01 -.170E+01 -.526E-22   0.250E-01 0.465E-02 0.116E-07
 -----------------------------------------------------------------------------------------------
   -.143E-04 0.119E-02 -.254E-04   -.540E-12 -.148E-11 0.304E-13   0.266E-14 -.466E-14 -.120E-19   0.328E-03 -.866E-03 0.102E-04
 
 
 POSITION                                       TOTAL-FORCE (eV/Angst)
 -----------------------------------------------------------------------------------
      2.35765     18.02203      1.79770        -0.345527     -0.273658     -0.000000
     -2.39586     17.95585      1.79770         0.409759     -0.162406      0.000000
      0.03821     13.87228      1.79770        -0.064231      0.436065     -0.000000
     14.35229     11.05280      1.79770         0.064231     -0.436065      0.000000
     16.78636      6.96923      1.79770        -0.409759      0.162406     -0.000000
     12.03285      6.90305      1.79770         0.345527      0.273658     -0.000000
     16.96010     10.97877      1.79770        -0.276913     -0.798807     -0.000000
     10.79306      9.19849      1.79770         0.830244      0.159590      0.000000
     15.41834      4.74782      1.79770        -0.553331      0.639217      0.000000
     -2.56960     13.94631      1.79770         0.276913      0.798807     -0.000000
      3.59744     15.72659      1.79770        -0.830244     -0.159590     -0.000000
     -1.02784     20.17726      1.79770         0.553331     -0.639217     -0.000000
     15.59746      9.03478      1.79770        -0.205914     -0.199402      0.000000
     13.15792      8.99040      1.79770         0.275644     -0.078626      0.000000
     14.41612      6.89989      1.79770        -0.069730      0.278028      0.000000
     -1.20696     15.89030      1.79770         0.205914      0.199402      0.000000
      1.23258     15.93467      1.79770        -0.275644      0.078626      0.000000
     -0.02562     18.02518      1.79770         0.069730     -0.278028      0.000000
     19.86377     13.22680      1.79770        -0.782449     -0.359819      0.000000
      7.39437     10.58913      1.79770         0.702837     -0.497711      0.000000
     15.91336      1.10915      1.79770         0.079612      0.857530     -0.000000
     -5.47327     11.69827      1.79770         0.782449      0.359819      0.000000
      6.99613     14.33595      1.79770        -0.702837      0.497711      0.000000
     -1.52286     23.81593      1.79770        -0.079612     -0.857530      0.000000
     18.52590     12.83272      1.79770         0.692510     -1.037334     -0.000000
      8.40459      9.62754      1.79770         0.552102      1.118399     -0.000000
     16.24101      2.46482      1.79770        -1.244613     -0.081065     -0.000000
     -4.13540     12.09236      1.79770        -0.692510      1.037334     -0.000000
      5.98591     15.29754      1.79770        -0.552102     -1.118399     -0.000000
     -1.85051     22.46026      1.79770         1.244613      0.081065      0.000000
     14.37253      9.77780      1.79770         0.012104      0.243047      0.000000
     13.12692      7.55808      1.79770        -0.216537     -0.111042     -0.000000
     15.67206      7.58920      1.79770         0.204433     -0.132006     -0.000000
      0.01797     15.14728      1.79770        -0.012104     -0.243047     -0.000000
      1.26358     17.36700      1.79770         0.216537      0.111042      0.000000
     -1.28156     17.33587      1.79770        -0.204433      0.132006      0.000000
     16.79618      9.65280      1.79770        -0.513551      0.619295      0.000000
     12.02334      9.71951      1.79770        -0.279550     -0.754396     -0.000000
     14.35199      5.55276      1.79770         0.793101      0.135101      0.000000
     -2.40568     15.27227      1.79770         0.513551     -0.619295      0.000000
      2.36716     15.20556      1.79770         0.279550      0.754396     -0.000000
      0.03851     19.37232      1.79770        -0.793101     -0.135101      0.000000
     18.24059     11.44777      1.79770         1.092597      0.899039      0.000000
      9.74664     10.07293      1.79770        -1.324889      0.496697     -0.000000
     15.18427      3.40438      1.79770         0.232292     -1.395736     -0.000000
     -3.85009     13.47730      1.79770        -1.092597     -0.899039     -0.000000
      4.64386     14.85215      1.79770         1.324889     -0.496697     -0.000000
     -0.79377     21.52070      1.79770        -0.232292      1.395736      0.000000
     19.29158     10.50276      1.79770        -0.160521      0.364083      0.000000
     10.03955     11.45561      1.79770        -0.235045     -0.321057      0.000000
     13.84037      2.96670      1.79770         0.395566     -0.043026      0.000000
     -4.90108     14.42232      1.79770         0.160521     -0.364083      0.000000
      4.35095     13.46946      1.79770         0.235045      0.321057     -0.000000
      0.55013     21.95838      1.79770        -0.395566      0.043026      0.000000
     20.58422     10.91390      1.79770        -0.077435      0.191832     -0.000000
      9.03718     12.36951      1.79770        -0.127414     -0.162976     -0.000000
     13.55010      1.64167      1.79770         0.204849     -0.028856     -0.000000
     -6.19372     14.01118      1.79770         0.077435     -0.191832      0.000000
      5.35332     12.55557      1.79770         0.127414      0.162976     -0.000000
      0.84040     23.28341      1.79770        -0.204849      0.028856     -0.000000
     20.89310     12.27427      1.79770        -0.041143     -0.025040     -0.000000
      7.70462     11.95682      1.79770         0.042256     -0.023111      0.000000
     14.57378      0.69398      1.79770        -0.001114      0.048151      0.000000
     -6.50260     12.65080      1.79770         0.041143      0.025040     -0.000000
      6.68588     12.96826      1.79770        -0.042256      0.023111     -0.000000
     -0.18328     24.23109      1.79770         0.001114     -0.048151      0.000000
     17.63837      8.98147      1.79770         0.038365     -0.010424      0.000000
     12.18364     10.78455      1.79770        -0.010155      0.038437      0.000000
     13.34949      5.15906      1.79770        -0.028210     -0.028013      0.000000
     -3.24787     15.94361      1.79770        -0.038365      0.010424      0.000000
      2.20686     14.14053      1.79770         0.010155     -0.038437      0.000000
      1.04101     19.76601      1.79770         0.028210      0.028013      0.000000
     16.08439     11.54170      1.79770         0.013428     -0.198573      0.000000
     10.74340      8.15864      1.79770         0.165255      0.110916      0.000000
     16.34371      5.22474      1.79770        -0.178683      0.087657      0.000000
     -1.69389     13.38338      1.79770        -0.013428      0.198573      0.000000
      3.64710     16.76644      1.79770        -0.165255     -0.110916      0.000000
     -1.95321     19.70034      1.79770         0.178683     -0.087657     -0.000000
     19.12633      9.43666      1.79770         0.057849     -0.038224      0.000000
     11.04545     11.84556      1.79770         0.004178      0.069210      0.000000
     12.99972      3.64286      1.79770        -0.062027     -0.030986      0.000000
     -4.73583     15.48842      1.79770        -0.057849      0.038224      0.000000
      3.34505     13.07952      1.79770        -0.004178     -0.069210      0.000000
      1.39078     21.28222      1.79770         0.062027      0.030986      0.000000
     21.35918     10.15347      1.79770         0.017922      0.040985     -0.000000
      9.30824     13.42086      1.79770        -0.044455     -0.004971      0.000000
     12.50407      1.35075      1.79770         0.026533     -0.036014      0.000000
     -6.96868     14.77160      1.79770        -0.017922     -0.040985      0.000000
      5.08226     11.50422      1.79770         0.044455      0.004971     -0.000000
      1.88643     23.57433      1.79770        -0.026533      0.036014     -0.000000
     20.06532     14.29403      1.79770         0.064303     -0.015415      0.000000
      6.36935     10.23006      1.79770        -0.018802      0.063395      0.000000
     16.73683      0.40099      1.79770        -0.045501     -0.047980      0.000000
     -5.67482     10.63105      1.79770        -0.064303      0.015415      0.000000
      8.02115     14.69502      1.79770         0.018802     -0.063395      0.000000
     -2.34633     24.52409      1.79770         0.045501      0.047980      0.000000
     -3.34059     11.36114      1.79770         0.312824     -0.173704     -0.000000
      8.16874      8.57360      1.79770         0.005980     -0.357766     -0.000000
     -2.88117     22.13754      1.79770        -0.306845     -0.184062     -0.000000
      6.22176     16.35147      1.79770        -0.005980      0.357766      0.000000
     17.73109     13.56394      1.79770        -0.312824      0.173704      0.000000
     17.27167      2.78753      1.79770         0.306845      0.184062      0.000000
 -----------------------------------------------------------------------------------
    total drift:                                0.000313      0.000322     -0.000015


--------------------------------------------------------------------------------------------------------



  FREE ENERGIE OF THE ION-ELECTRON SYSTEM (eV)
  ---------------------------------------------------
  free  energy   TOTEN  =      -709.00459965 eV

  energy  without entropy=     -709.00459965  energy(sigma->0) =     -709.00459965
 


--------------------------------------------------------------------------------------------------------


    POTLOK:  cpu time      0.0915: real time      0.0918


--------------------------------------------------------------------------------------------------------


     LOOP+:  cpu time    634.9155: real time    638.6332
    4ORBIT:  cpu time      0.0000: real time      0.0000



 total charge

# of ion       s       p       d       tot
------------------------------------------
    1        1.583   3.526   0.000   5.109
    2        1.583   3.526   0.000   5.109
    3        1.583   3.526   0.000   5.109
    4        1.583   3.526   0.000   5.109
    5        1.583   3.526   0.000   5.109
    6        1.583   3.526   0.000   5.109
    7        1.227   2.805   0.000   4.032
    8        1.227   2.805   0.000   4.032
    9        1.227   2.805   0.000   4.032
   10        1.227   2.805   0.000   4.032
   11        1.227   2.805   0.000   4.032
   12        1.227   2.805   0.000   4.032
   13        0.876   1.872   0.000   2.748
   14        0.876   1.872   0.000   2.748
   15        0.876   1.872   0.000   2.748
   16        0.876   1.872   0.000   2.748
   17        0.876   1.872   0.000   2.748
   18        0.876   1.872   0.000   2.748
   19        0.868   1.780   0.000   2.648
   20        0.868   1.780   0.000   2.648
   21        0.868   1.780   0.000   2.648
   22        0.868   1.780   0.000   2.648
   23        0.868   1.780   0.000   2.648
   24        0.868   1.780   0.000   2.648
   25        0.865   1.782   0.000   2.647
   26        0.865   1.782   0.000   2.647
   27        0.865   1.782   0.000   2.647
   28        0.865   1.782   0.000   2.647
   29        0.865   1.782   0.000   2.647
   30        0.865   1.782   0.000   2.647
   31        0.870   1.728   0.000   2.598
   32        0.870   1.728   0.000   2.598
   33        0.870   1.728   0.000   2.598
   34        0.870   1.728   0.000   2.598
   35        0.870   1.728   0.000   2.598
   36        0.870   1.728   0.000   2.598
   37        0.890   1.807   0.000   2.697
   38        0.890   1.807   0.000   2.697
   39        0.890   1.807   0.000   2.697
   40        0.890   1.807   0.000   2.697
   41        0.890   1.807   0.000   2.697
   42        0.890   1.807   0.000   2.697
   43        0.862   1.785   0.000   2.647
   44        0.862   1.785   0.000   2.647
   45        0.862   1.785   0.000   2.647
   46        0.862   1.785   0.000   2.647
   47        0.862   1.785   0.000   2.647
   48        0.862   1.785   0.000   2.647
   49        0.876   1.821   0.000   2.697
   50        0.876   1.821   0.000   2.697
   51        0.876   1.821   0.000   2.697
   52        0.876   1.821   0.000   2.697
   53        0.876   1.821   0.000   2.697
   54        0.876   1.821   0.000   2.697
   55        0.880   1.812   0.000   2.693
   56        0.880   1.812   0.000   2.693
   57        0.880   1.812   0.000   2.693
   58        0.880   1.812   0.000   2.693
   59        0.880   1.812   0.000   2.693
   60        0.880   1.812   0.000   2.693
   61        0.870   1.811   0.000   2.681
   62        0.870   1.811   0.000   2.681
   63        0.870   1.811   0.000   2.681
   64        0.870   1.811   0.000   2.681
   65        0.870   1.811   0.000   2.681
   66        0.870   1.811   0.000   2.681
   67        0.654   0.055   0.000   0.709
   68        0.654   0.055   0.000   0.709
   69        0.654   0.055   0.000   0.709
   70        0.654   0.055   0.000   0.709
   71        0.654   0.055   0.000   0.709
   72        0.654   0.055   0.000   0.709
   73        0.584   0.087   0.000   0.672
   74        0.584   0.087   0.000   0.672
   75        0.584   0.087   0.000   0.672
   76        0.584   0.087   0.000   0.672
   77        0.584   0.087   0.000   0.672
   78        0.584   0.087   0.000   0.672
   79        0.660   0.050   0.000   0.710
   80        0.660   0.050   0.000   0.710
   81        0.660   0.050   0.000   0.710
   82        0.660   0.050   0.000   0.710
   83        0.660   0.050   0.000   0.710
   84        0.660   0.050   0.000   0.710
   85        0.655   0.047   0.000   0.702
   86        0.655   0.047   0.000   0.702
   87        0.655   0.047   0.000   0.702
   88        0.655   0.047   0.000   0.702
   89        0.655   0.047   0.000   0.702
   90        0.655   0.047   0.000   0.702
   91        0.654   0.047   0.000   0.701
   92        0.654   0.047   0.000   0.701
   93        0.654   0.047   0.000   0.701
   94        0.654   0.047   0.000   0.701
   95        0.654   0.047   0.000   0.701
   96        0.654   0.047   0.000   0.701
   97        0.653   0.047   0.000   0.700
   98        0.653   0.047   0.000   0.700
   99        0.653   0.047   0.000   0.700
  100        0.653   0.047   0.000   0.700
  101        0.653   0.047   0.000   0.700
  102        0.653   0.047   0.000   0.700
--------------------------------------------------
tot         87.156 137.188   0.000 224.344
 

 total amount of memory used by VASP MPI-rank0   162414. kBytes
=======================================================================

   base      :      30000. kBytes
   nonl-proj :      17044. kBytes
   fftplans  :       4877. kBytes
   grid      :       9895. kBytes
   one-center:          9. kBytes
   wavefun   :     100589. kBytes
 
  
  
 General timing and accounting informations for this job:
 ========================================================
  
                  Total CPU time used (sec):      682.131
                            User time (sec):      677.525
                          System time (sec):        4.606
                         Elapsed time (sec):      690.242
  
                   Maximum memory used (kb):      559104.
                   Average memory used (kb):          N/A
  
                          Minor page faults:       160305
                          Major page faults:            0
                 Voluntary context switches:        25656
